JAC.dat Converted from PDB via ASE and OpenMM; specorder = ['H', 'C', 'N', 'O', 'S'] 

23558 	 atoms 
5  atom types
0.0      61.644723157577054  xlo xhi
0.0      61.644723157577054  ylo yhi
0.0      61.644723157577054  zlo zhi


Atoms 

     1   1   3   0.0      35.333736660218818      19.607777828671935      36.363604186525365
     2   1   1   0.0      35.154782831700388        18.7122298319766      36.794961709786463
     3   1   1   0.0      35.283599395701728      20.203422138771852      37.177726315841326
     4   1   1   0.0      36.216641502027159      19.518261618299078      35.881353233826275
     5   1   2   0.0      34.278180720214934      20.078223578048686       35.47680854228291
     6   1   1   0.0      34.143116914769493      19.344830892010862      34.681828477397744
     7   1   2   0.0      32.941734898798444      20.304906955026279      36.235398617015065
     8   1   1   0.0      32.645608657516831      19.320032949676559      36.596552936971037
     9   1   1   0.0      32.999855561282246      21.101805867339245      36.976799351750685
    10   1   2   0.0      31.736231693784628      20.737894193405573      35.450199229425593
    11   1   1   0.0      32.076879800756686      21.676898964879104      35.013932216729131
    12   1   1   0.0      31.498427206066086      20.022532211710416      34.662921355952264
    13   1   5   0.0      30.265005097776601      21.020425080731439      36.485465183061365
    14   1   2   0.0      30.061276140692023      19.270784073024025      36.956591778849628
    15   1   1   0.0      30.260781867108832      18.644452468531398      36.087105616601065
    16   1   1   0.0      29.032943234193024      19.070597929610685      37.257517547555153
    17   1   1   0.0      30.600420151452994      18.949598246483006      37.847806175706211
    18   1   2   0.0      34.761709871076363      21.417509819770167       35.01110236516412
    19   1   4   0.0      35.105618496620806       22.27156143431182       35.79614266395086
    20   1   3   0.0      34.538485717772261      21.705275280975389      33.757836983532798
    21   1   1   0.0      34.290423359176245      20.891124457220521      33.214032328623517
    22   1   2   0.0       34.39096023842022       23.03538508225289      33.182627896159659
    23   1   1   0.0      34.917055961244714      23.735320767964168      33.831791778054921
    24   1   2   0.0      34.957198651422047      23.073987462346569      31.769326842078932
    25   1   1   0.0      34.441787367490264      22.323518564077066      31.169954129222379
    26   1   2   0.0      34.704605728175011      24.417646198221846      31.083146720932472
    27   1   1   0.0      35.192717640491978      24.474204751866719      30.110188401648269
    28   1   1   0.0      35.145776514510985      25.139653040052071      31.770296776666743
    29   1   1   0.0      33.631514574243184      24.573711169750361      30.972605880401971
    30   1   2   0.0      36.535166817129223       22.94467656366233      31.867646520552299
    31   1   1   0.0      37.040406111702595      23.383771056411181      31.007396974398912
    32   1   1   0.0      37.030494354680528      23.283128590341803      32.777701859991708
    33   1   2   0.0      37.030330002399964      21.532185903352968       31.73927181032273
    34   1   1   0.0      38.104837447898745      21.657269800026899      31.873016972336032
    35   1   1   0.0      36.716466967575855      21.168704544495071      30.760767659545429
    36   1   1   0.0      36.603197556832569      20.872065803163412      32.494188364283318
    37   1   2   0.0      32.880118662367153      23.437772192526332       33.15428280955652
    38   1   4   0.0      32.005678998817103        22.6746047534137      32.659873858525998
    39   1   3   0.0      32.709878107538842      24.673707176292989      33.609723039745518
    40   1   1   0.0      33.491198227124372      25.169645604594649      34.014301802806742
    41   1   2   0.0      31.506033799107062      25.434768029967003      33.662344582218978
    42   1   1   0.0      30.645899135510788      24.894759960780696      33.266542048504007
    43   1   2   0.0      31.144917667669404      25.712598216436501      35.112697062094227
    44   1   1   0.0      31.925009150547133       26.27033113258447      35.630858496965288
    45   1   1   0.0      30.200674446169124      26.252068155180673      35.186701992715896
    46   1   4   0.0      30.900343357541548       24.55497060838626       35.91664941475392
    47   1   1   0.0      30.777942702708341      24.879105603376654      36.811945223318745
    48   1   2   0.0      31.619465641756577      26.737231014602926      33.002777810492873
    49   1   4   0.0      32.480168356681418      27.588638872518295      33.381165788270152
    50   1   3   0.0      30.798110925800529      27.060882812270552      32.051231509316978
    51   1   1   0.0      30.048418580333536      26.397542204814748      31.916916037945651
    52   1   2   0.0      30.728857191049968      28.320232305514285      31.347999600894106
    53   1   1   0.0      31.696994333261728       28.80928125903224      31.455895823888198
    54   1   2   0.0      30.366915353196902      28.008760527549512      29.877950582830589
    55   1   1   0.0      29.760204467800193      27.104297746491881      29.833799627900266
    56   1   1   0.0      29.915250642457288      28.878645161362456      29.401086123124824
    57   1   2   0.0      31.612529897791379      27.838582648167293      28.976688723648376
    58   1   1   0.0      32.254617657437791      28.718979089095082      29.003622266235496
    59   1   2   0.0      32.503919042533795      26.584831435327594      29.448784136006164
    60   1   1   0.0      33.058243821420916      27.039320336283893      30.269919979882602
    61   1   1   0.0      33.182797011565157      26.162723595479576      28.707805273484901
    62   1   1   0.0       31.87147285954925      25.789140973797444       29.84247082444352
    63   1   2   0.0      31.299854124038173      27.485859686187201      27.552148799643099
    64   1   1   0.0      30.825533060982188      28.308487249781955      27.016981989925881
    65   1   1   0.0      30.591135651590022      26.666851044300781      27.429499008259413
    66   1   1   0.0      32.262893250553219      27.328371571723643      27.066501271289788
    67   1   2   0.0      29.797078882269847      29.330574569603943      31.895404625527419
    68   1   4   0.0      28.603640335952299      28.966647915813152      32.042618509872753
    69   1   3   0.0      30.232375558507854      30.546318155936927       32.16705804055016
    70   1   1   0.0      31.214382990063164      30.729623946039588      32.018192696220481
    71   1   2   0.0      29.324179529857517      31.613958924612465      32.707665498200257
    72   1   1   0.0      28.361170461185718      31.103910268191139      32.731429548301946
    73   1   2   0.0       29.71555480892647      31.908148374077804      34.211706204891385
    74   1   1   0.0      29.653369973033215      30.920050229450563      34.667661359231701
    75   1   2   0.0      31.172163374174229      32.451992531557259      34.348055068978198
    76   1   1   0.0      31.263030180839579      33.479823979251123      33.996763539648626
    77   1   1   0.0      31.933950271098098      31.774079243642994       33.96306813997569
    78   1   1   0.0      31.331936691988833      32.531136714377837      35.423373090092241
    79   1   2   0.0      28.668792820030149      32.824894599346329        34.8837453938268
    80   1   1   0.0       28.68981441832171      33.795472617792683      34.388128200305019
    81   1   1   0.0       27.65766647778689      32.443998307262092      34.740073422686464
    82   1   2   0.0      28.817771841681363      33.030123386969962      36.452747480426879
    83   1   1   0.0      29.664733648466214      33.624493700027401      36.795500037588397
    84   1   1   0.0      28.480391273821951      32.167019247511163      37.026616452301695
    85   1   1   0.0      28.006321295642387       33.70595979404095      36.722733027769337
    86   1   2   0.0      29.126624592976466       32.82153005807649      31.773736094249184
    87   1   4   0.0      30.147823840414546      33.312686092611436      31.280759652165901
    88   1   3   0.0      27.890856256645904      33.268040825390905      31.541342422053376
    89   1   1   0.0      27.085279665662512      32.801483252329881      31.933095819195998
    90   1   2   0.0      27.648773729792048      34.414243086427447      30.595054553840654
    91   1   1   0.0      28.522067944511598      35.060791834118788      30.508844569339274
    92   1   2   0.0      27.498599768021016      33.816927093330953      29.222744889012059
    93   1   1   0.0       26.45549498127852      33.713658329449906      28.923800134446701
    94   1   1   0.0      28.100630816347589      32.939434793333525      28.986810131723342
    95   1   1   0.0      27.907720716189125      34.562544862440781      28.541001514114669
    96   1   2   0.0      26.391849661875824      35.242604183563699      31.142427888084484
    97   1   4   0.0      25.505561790970191      34.626922003742564      31.803860483702504
    98   1   3   0.0      26.301969553287918      36.469668239070856      30.782694928560296
    99   1   1   0.0      27.039686652735252      36.857640965740849      30.212299763307531
   100   1   2   0.0      25.051788443440529      37.175313468800603      30.666093412796812
   101   1   1   0.0      24.201568293133256      36.642277148584711      31.091649492944811
   102   1   2   0.0      25.202005522859086      38.530180231808949      31.398226467139708
   103   1   1   0.0      26.050109569327141      38.996559771936923      30.896918211290377
   104   1   1   0.0      25.409316746797618      38.278765377184335      32.438376757869094
   105   1   1   0.0      24.297220429056448      39.131109325572652      31.306852856775063
   106   1   2   0.0      24.684612259285224      37.445225300056556      29.224309323848491
   107   1   4   0.0      25.589620112202045      37.746692786855817      28.501171119830921
   108   1   3   0.0      23.409072979580344      37.357222963422409      28.788775391806428
   109   1   1   0.0      22.614559314111148      37.225554888281927      29.398293124538455
   110   1   2   0.0      23.013967855823342      37.553841664029115      27.390190576861308
   111   1   1   0.0      23.747601724980871      38.197148123659439      26.904352381557196
   112   1   2   0.0      23.217044799962601      36.212436274525935      26.535599864626089
   113   1   1   0.0      23.026584503815528      36.511140449181035      25.504774190507639
   114   1   1   0.0      24.265695769913012      35.915589927405122      26.517897055209374
   115   1   2   0.0      22.274428881837313      35.020797172164002      26.835451260553494
   116   1   1   0.0      21.255145837172297      35.299663849471827      26.568251779488854
   117   1   2   0.0      22.777395253652362      33.858930974676298      25.951988233169814
   118   1   1   0.0      22.185191799874776      32.975632217922509      26.191108235787436
   119   1   1   0.0      23.779940881754094       33.60617097762821      26.297119410835187
   120   1   1   0.0      22.748263345213676       34.18087037920975      24.911023952632128
   121   1   2   0.0      22.207729411063617      34.381217152630455      28.234451008894425
   122   1   1   0.0      21.889649810312473      35.116128912923806      28.973930753422575
   123   1   1   0.0      23.226910861750369      34.052967275606377      28.438463726170681
   124   1   1   0.0      21.484771508381275      33.567990145618268      28.170463741615851
   125   1   2   0.0      21.679099166122413      38.268614809520933      27.128501059816763
   126   1   4   0.0      20.688724881330369      37.943657619864339      27.800377155872358
   127   1   3   0.0      21.580119630783436      39.237280434921409      26.208742657178803
   128   1   1   0.0       22.46037031220693      39.462992328350509      25.767933117297289
   129   1   2   0.0      20.412757324907339      40.030183018552037      25.771190414915161
   130   1   1   0.0      19.827597299953709      40.310558160947622      26.647020045497676
   131   1   2   0.0      20.940256077057025      41.406184038260704      25.127188931781923
   132   1   1   0.0      21.533667831270243      42.018098706273427      25.806544472997309
   133   1   1   0.0          20.03103088524       41.92033759708309      24.815650986530962
   134   1   1   0.0      21.449912931428244      41.138538616480588      24.201599487701053
   135   1   2   0.0      19.436403236159485      39.226096623719634      24.819695837402485
   136   1   4   0.0      19.525294777230901      38.036135155733163      24.664467047298956
   137   1   3   0.0      18.372705834921771      39.873617442807245      24.211738325152407
   138   1   1   0.0      18.218887203221477      40.835202686652607       24.47968202178977
   139   1   2   0.0      17.475180580125066      39.302340256400953      23.173517306678534
   140   1   1   0.0      16.963114241019866      38.408673194950914      23.530234628434677
   141   1   2   0.0      16.596005137804156      40.510290327859771      22.733326451442544
   142   1   1   0.0      17.148511968912487      41.449716471574263      22.715586043180629
   143   1   2   0.0      15.863308769364348      40.173943975909374      21.356539462896535
   144   1   1   0.0       15.23060585966167      39.291506805038296         21.451885616214
   145   1   1   0.0      16.550731176398134       40.03870925886342      20.521517442259221
   146   1   1   0.0      15.176308930257186      40.982614572895997      21.107174095138689
   147   1   2   0.0      15.364930132707087      40.780421446081476      23.677352021308948
   148   1   1   0.0      15.028937124812366      39.832792761231502      24.098313509210332
   149   1   1   0.0       14.52644141619313      41.242279710328027      23.156080298056324
   150   1   1   0.0      15.611856229010622      41.502265593924797      24.455856212430469
   151   1   2   0.0      18.360743016573352      38.689109225539127      22.013916475533236
   152   1   4   0.0      19.457673244395764      39.166614157948686       21.76719108514067
   153   1   3   0.0       17.93479560364635      37.659977785428261       21.37101012327285
   154   1   1   0.0      16.946964963989398      37.454785385404449      21.417778177026676
   155   1   2   0.0      18.698732949585313      36.907697862993373        20.3239020765816
   156   1   1   0.0      18.136112726941089      35.986912482463005      20.169912567396651
   157   1   2   0.0      18.648203864205556      37.761645704823906      19.084452341818157
   158   1   1   0.0      17.678656866979438      38.259603949934949      19.073672438909039
   159   1   1   0.0      19.515226751594845      38.420483428925046      19.132445142912282
   160   1   2   0.0      18.860720412516329      36.995370987463353      17.786321142831369
   161   1   4   0.0        19.3242361280608      37.615575171449521      16.767935793100044
   162   1   4   0.0      18.384667910321205      35.828127426711518      17.773582458930221
   163   1   2   0.0      19.989441496186764      36.327131665064954      20.803620899281725
   164   1   4   0.0      20.914453670050072      36.195334478781213      19.982610154834784
   165   1   3   0.0      20.151933989994998      35.903908658826786      22.073588494075263
   166   1   1   0.0      19.286980774653735       35.85165535908142      22.592457973343102
   167   1   2   0.0      21.376266038417576      35.335199759500384      22.638082715978744
   168   1   1   0.0      21.135391330044765      35.212227106978624       23.69399803486872
   169   1   2   0.0      21.616803906800982      33.891916395578136      22.104300704796046
   170   1   1   0.0      21.817378773886688      33.863449140304191      21.033292143635315
   171   1   1   0.0      22.484096785302398      33.512415878061958      22.644562681010527
   172   1   2   0.0       20.31106747546762      33.049802798654824      22.364604837431013
   173   1   1   0.0      19.875471076950571      33.301447775886729      23.331574532902909
   174   1   1   0.0      19.565131093805061      33.397026269742952      21.649681921558582
   175   1   2   0.0      20.358051388165475      31.564334395181216      22.364918965872441
   176   1   1   0.0      20.891904265849448       31.18732921540655      23.237253878288161
   177   1   1   0.0      19.345474370532528      31.161198250133392      22.381337135578679
   178   1   3   0.0      21.206211497908352      31.066749006672968      21.202383025908812
   179   1   1   0.0       21.33409546543659      31.758481649789196      20.477640560409537
   180   1   2   0.0      21.585760051297452      29.830970654953582      20.947215006966022
   181   1   3   0.0      22.134380750072822      29.659232140097362      19.766896478141959
   182   1   1   0.0      22.050939968903364      30.468146220152335      19.167900946330299
   183   1   1   0.0      22.223916251742871      28.784280543434988      19.270365053249815
   184   1   3   0.0      21.439888851716869      28.772561389179362      21.653369139479747
   185   1   1   0.0       21.70787931014263      27.903269925261082      21.214491633844016
   186   1   1   0.0      20.765083391774311      28.682838968867213      22.399483897822666
   187   1   2   0.0      22.598219902643454      36.241230857700884      22.615506084110951
   188   1   4   0.0      23.767249070196034      35.767980840689042      22.677481822370634
   189   1   3   0.0       22.47629817864177      37.558327486912226      22.339042766154627
   190   1   1   0.0      21.550250641814905      37.872895054218851      22.086885662073335
   191   1   2   0.0      23.560385746008233      38.533754657432873         22.163995569516
   192   1   1   0.0      24.227362178022602      38.257230311263378      21.347431485151077
   193   1   2   0.0      22.950031710279156      39.824912085035486      21.638598754672604
   194   1   1   0.0      22.177735726156349      40.224530164534073       22.29583897794436
   195   1   2   0.0      24.115253245358485      40.849258302602216       21.54847163934242
   196   1   1   0.0      24.960763853142687      40.441203723124758      20.994663815495223
   197   1   1   0.0      24.424142612862667      41.204097676597222      22.531719511095073
   198   1   1   0.0      23.796825186321019      41.687007940313585      20.928085688584442
   199   1   2   0.0      22.430291383016474      39.569705719285054      20.194993492905624
   200   1   1   0.0      23.082793443836088      38.955802772892113      19.574136113784753
   201   1   1   0.0      22.431543882169038      40.519073944976675       19.65945802666311
   202   1   1   0.0       21.42569307644413      39.147128251285906      20.212615240033379
   203   1   2   0.0      24.330053365973271      38.707729417715612      23.501171207497542
   204   1   4   0.0      23.769245187435054      39.181548466228037      24.495309220091688
   205   1   3   0.0      25.660190252225128      38.490036433392575      23.468428964581879
   206   1   1   0.0      26.124480573121698      38.203850611427463      22.618351219178781
   207   1   2   0.0      26.568007923490107      38.439871543615645      24.581195885668237
   208   1   1   0.0      26.001141980013802      38.421781257788282      25.512021398225677
   209   1   2   0.0       27.51344742418279      37.238714268646817      24.400356241517855
   210   1   1   0.0      28.141195097309847      37.225370760100937       25.29134220583348
   211   1   2   0.0      26.697390149501832      35.959662022884459      24.482744113888408
   212   1   1   0.0      26.023092207173889      36.133433525254816       25.32133008044638
   213   1   1   0.0      27.298152324986589      35.089223754841079      24.746414976044893
   214   1   1   0.0      26.150046409640836      35.840846007462019      23.547651827044447
   215   1   2   0.0      28.365786255721641      37.329245793066939      23.091979050377116
   216   1   1   0.0      27.653746195459977      37.121494440293652      22.293268634766726
   217   1   1   0.0      28.744491913815576      38.335005878896062       22.90996573910639
   218   1   2   0.0      29.554588949723289      36.367277580382037      23.029642407977256
   219   1   1   0.0       29.71476296770625      36.160393993706606      21.971510025308802
   220   1   1   0.0      29.242349233364031      35.420534167707601      23.470418574179966
   221   1   1   0.0      30.396826408323783      36.960714784555776      23.385406863809237
   222   1   2   0.0      27.366002092245356       39.72710313939308      24.759578775218394
   223   1   4   0.0      28.247607940570958      39.809756515797112      25.647749163204221
   224   1   3   0.0      27.195992038860748      40.826709635903129      23.940711581872112
   225   1   1   0.0      26.424440684556508      40.794069127085663      23.289756049707524
   226   1   2   0.0      28.008677001350573      42.053564262138138      24.105597967612375
   227   1   1   0.0      27.524797183988529       42.70835641960425      23.380885715005924
   228   1   1   0.0      28.002971259385987      42.386357200627344      25.143536455482245
   229   1   2   0.0      29.500724070017981      41.904694533223541      23.796667270654289
   230   1   4   0.0      30.316771180674902      42.592846973922065      24.391292097351798
   231   1   3   0.0      29.826859632808166      40.922592852524588      22.921846298080059
   232   1   1   0.0      28.980408580571972      40.626882381957323      22.456899060456919
   233   1   2   0.0      31.138333932468285      40.283630374901335      22.660719859027072
   234   1   1   0.0      30.851189616952489      39.353476321969438      22.170350776675999
   235   1   2   0.0      31.900445076253998      40.989702762740293      21.468775994787237
   236   1   1   0.0      31.049524024492658      41.275308676093402      20.850340366829137
   237   1   1   0.0      32.372193128963715       41.89073881248521      21.860806594710432
   238   1   2   0.0      32.845320019063323      40.105383295384271      20.643065716316848
   239   1   1   0.0      33.751839854335316      39.870986470880041      21.201079978610323
   240   1   1   0.0      32.264713797596599      39.253516711633345       20.28905990786091
   241   1   5   0.0      33.622856547877916      40.786175114095961      19.141680000401522
   242   1   2   0.0      34.666122817335207      42.069561860883091      19.931112659937398
   243   1   1   0.0      34.027525064536803      42.718423596914789      20.530504841771986
   244   1   1   0.0      35.003863676799185      42.632146178143444       19.06075066753224
   245   1   1   0.0      35.535065906177309      41.622958067334153      20.414415815932752
   246   1   2   0.0      32.191347799865426      40.044390780108294      23.689821507642371
   247   1   4   0.0      32.598710497922582      38.869851901717411      23.890253928099227
   248   1   3   0.0      32.645732660219707      41.104399180505702      24.425390055333295
   249   1   1   0.0      32.311316398188794      42.008724474472928      24.124621828319452
   250   1   2   0.0      33.735343844478791      40.957801525670654      25.418136901885529
   251   1   1   0.0      33.877502951625402      39.908154394268813      25.675297794035217
   252   1   2   0.0      35.025403109263294      41.537644807251219      24.776384899024318
   253   1   1   0.0      34.759992027655926      42.462790871310972      24.264757670435031
   254   1   1   0.0      35.797259672075157      41.880883564254489      25.465242360451104
   255   1   2   0.0      35.626984345727294      40.507487898520651      23.777392469320375
   256   1   1   0.0      35.951109300746111      39.711921896843613      24.448300952248395
   257   1   1   0.0       34.80230018422219      40.013181968499751      23.263916392640397
   258   1   2   0.0      36.785516786538935      41.077211274259469      22.935262334949943
   259   1   4   0.0      36.686479448295771       42.25586949049999      22.514772544942577
   260   1   4   0.0      37.730691366846187      40.312047400078654      22.687893429907607
   261   1   2   0.0      33.434207292911708      41.698363204838707      26.727641467670335
   262   1   4   0.0      33.942486583467939      41.258027646322795      27.743201391016402
   263   1   3   0.0      32.492351839250887      42.605071893260025      26.748908175245933
   264   1   1   0.0      32.037509300785828      42.912879346171522      25.901279908887606
   265   1   2   0.0      32.429797517418848      43.664005769844749      27.829685783191216
   266   1   1   0.0      33.130726232610272       43.42231406577212       28.62867541255433
   267   1   2   0.0      32.569124307393892      45.040603421412598      27.134835442431605
   268   1   1   0.0      31.566533776059448      45.351914133348657      26.841581513002495
   269   1   1   0.0      32.874095452187646      45.822601980824118        27.8302283725019
   270   1   2   0.0      33.484112979253069      45.070941893889874      25.845451333056111
   271   1   4   0.0      32.954711586258654      45.067565750771635      24.740877129140529
   272   1   3   0.0      34.799130021273172      45.135511647451303       25.95105544076171
   273   1   1   0.0      35.304183048929517      45.252561042915914      25.084267763017067
   274   1   1   0.0      35.218715279532987      45.271858825057976      26.859602947213954
   275   1   2   0.0      31.157122602932034      43.674925859108711      28.676775952432898
   276   1   4   0.0      30.345691551059801      42.774152524539303       28.60953484764492
   277   1   3   0.0      31.000763455530368      44.671948226728865      29.546541270294604
   278   1   1   0.0      31.850618876363015      45.170570624878465      29.768401807295852
   279   1   2   0.0      29.729660859067991       44.94586216310897      30.253019365529518
   280   1   1   0.0      29.433867511834372      44.039429344556353      30.781210828962472
   281   1   2   0.0      29.824161601435826      46.076202386827845      31.241168683575928
   282   1   1   0.0      29.897107548895313      47.069669775914434      30.798674123637024
   283   1   1   0.0      30.653193918044842      45.970013688328287      31.940832197259144
   284   1   1   0.0      28.916950974095215      46.095025371460999       31.84508505027128
   285   1   2   0.0      28.561365961489603      45.268408812881901      29.233358730971997
   286   1   4   0.0      28.711898482852032       45.98548713989706      28.205303123787747
   287   1   3   0.0      27.348481357481479       44.82390003634486      29.455299746793475
   288   1   1   0.0      27.441277888331335      44.159384152127068      30.210222198833844
   289   1   2   0.0      26.081152017043614      45.414943700440212      29.100199880914847
   290   1   1   0.0      25.892513583551224      45.446228010803146      28.027103037445773
   291   1   2   0.0      24.993291444685887      44.448565690879825      29.602209330961493
   292   1   1   0.0       25.00582495247491      44.366420560896735      30.689037325081582
   293   1   1   0.0      24.021710972522765      44.886582951567426      29.373578299659865
   294   1   2   0.0       24.99141292588007      43.036151037139867      29.094628638162451
   295   1   1   0.0      25.885645398531501      42.530469041373664      29.458955088866293
   296   1   1   0.0      24.177836217829729      42.438823250268129      29.506201784944714
   297   1   5   0.0      24.703501391736985      42.867028145573997      27.248112133192603
   298   1   2   0.0      24.654232916433301      41.065709437249389      26.953856355006781
   299   1   1   0.0      25.674707624963666      40.683079221351697      26.971897616947317
   300   1   1   0.0      24.272600981321482      40.943491482209055      25.940189496506324
   301   1   1   0.0      23.973977735149514      40.579928302427099      27.653406051825847
   302   1   2   0.0      26.134597410298767      46.820572149796071      29.680386144273065
   303   1   4   0.0      26.766594815470356      47.029187289465625      30.755670875128963
   304   1   3   0.0      25.400113037964275      47.797044465040798        29.1351060015187
   305   1   2   0.0      24.495457392883768      47.646568755650136      27.987175557000317
   306   1   1   0.0      25.006456672486959      47.350030370875366      27.071181224421355
   307   1   1   0.0      23.825261157589331      46.808469421756726      28.178294663244827
   308   1   2   0.0      23.839679975112197      48.995204280156912       27.82481432007345
   309   1   1   0.0      23.526822249600229      49.179887837329339      26.797141207016821
   310   1   1   0.0      22.960720799018613      48.886378085783434      28.460178264810377
   311   1   2   0.0      24.868801020159918      49.956792193294667      28.444888551941268
   312   1   1   0.0      24.445611644531674      50.902164517769009      28.784420465819949
   313   1   1   0.0      25.605640891671399      50.284661868033034      27.711628976768612
   314   1   2   0.0      25.535689252136443      49.180003698195932      29.646405106027743
   315   1   1   0.0      26.559151719916887      49.554916760778553      29.654453245633938
   316   1   2   0.0      24.816752123979189       49.45356587274663      30.952655020411068
   317   1   4   0.0      25.172766643840674      50.371809254331353      31.635094303343276
   318   1   3   0.0      23.694903908392007      48.740165642092379      31.134072442739068
   319   1   1   0.0      23.623773954115133      48.044661756377423      30.405158847927368
   320   1   2   0.0      22.690418411647705      48.893586362619523       32.09081861333695